# vtk DataFile Version 2.0
Unstructured Grid Example
ASCII
DATASET UNSTRUCTURED_GRID
POINTS 200 float
-0.060875 0.014811 -0.392313 
-0.058944 -0.016819 0.388066 
-0.045592 -0.257085 -0.041570 
-0.043164 0.258556 0.040457 
0.046303 -0.256070 -0.042470 
0.051208 0.255116 0.038724 
0.066366 0.013461 -0.389102 
0.069143 -0.018814 0.381064 
0.095472 0.016477 -0.439935 
-0.084840 -0.021250 0.441367 
-0.060203 -0.288849 -0.043679 
0.067806 0.286454 0.040304 
-0.055870 0.289375 0.043086 
0.098280 -0.023480 0.430288 
0.060827 -0.286403 -0.044453 
-0.089598 0.018651 -0.445636 
-0.074521 -0.128886 -0.259957 
0.075767 0.181844 0.171998 
-0.069053 -0.184504 -0.176063 
0.069111 -0.183628 -0.174846 
-0.072214 -0.058809 -0.335630 
0.072316 -0.196917 0.118031 
-0.068333 0.197455 -0.121524 
-0.070744 0.128423 0.258935 
-0.054669 0.228951 0.096466 
-0.068443 0.057258 0.333064 
-0.058889 -0.232706 0.027624 
-0.070181 -0.088450 0.310265 
0.079662 -0.090135 0.307889 
0.005727 -0.018291 0.391217 
0.080891 0.054742 0.327818 
0.079061 -0.151288 0.215616 
0.063833 0.230223 -0.029928 
0.074760 0.084963 -0.312117 
0.074704 -0.127590 -0.257143 
-0.074104 -0.152015 0.218928 
0.073447 -0.058316 -0.332125 
-0.071533 0.087116 -0.313735 
-0.056589 0.233076 -0.028873 
-0.057793 -0.228275 -0.096965 
-0.073586 0.150508 -0.220221 
-0.065140 0.184546 0.175645 
-0.069490 -0.198163 0.120362 
0.060661 -0.231555 0.026277 
0.081257 0.123829 0.252902 
0.004703 0.259328 0.039641 
0.063877 0.225801 0.093538 
0.076957 0.148353 -0.219519 
0.072816 0.195329 -0.121991 
0.001147 0.014221 -0.393157 
0.000721 -0.258486 -0.041875 
0.058579 -0.227588 -0.096653 
0.116390 0.235180 -0.134295 
0.191015 0.067233 0.184091 
-0.184260 0.094598 -0.170388 
-0.123310 0.118193 -0.348389 
0.179564 0.139687 0.101862 
0.002160 -0.132727 -0.434836 
-0.113416 -0.239337 0.132742 
0.007102 -0.172994 0.391950 
0.007309 0.292088 0.126690 
0.009880 -0.028006 0.469379 
-0.124588 -0.192120 0.242358 
-0.000169 -0.218077 -0.336106 
0.001070 -0.267916 -0.229225 
0.005144 0.300174 -0.054209 
-0.129118 -0.080157 -0.373705 
-0.204738 -0.006219 0.090902 
0.136280 0.156628 0.278727 
-0.174089 -0.154425 0.068305 
-0.199776 -0.074127 -0.009741 
-0.090922 -0.270959 0.032440 
0.183710 0.090513 -0.169375 
0.187503 -0.095518 0.164850 
0.008586 0.127214 0.429185 
0.002568 0.029543 -0.480751 
0.187383 -0.019704 0.264567 
-0.112902 0.224658 0.193085 
-0.187198 -0.069537 -0.189540 
0.203315 0.005230 -0.092010 
-0.183193 -0.017424 0.271740 
-0.125992 0.164348 0.287856 
-0.176356 0.144769 0.106697 
0.007318 0.300468 0.039567 
-0.173502 0.155667 -0.068621 
-0.186293 -0.095162 0.169761 
0.003998 0.171125 -0.394270 
-0.088897 0.265353 0.104766 
0.009394 0.213668 0.333718 
0.151959 0.204398 0.024632 
0.000784 -0.292449 -0.129325 
0.200882 0.071700 0.006479 
0.131129 -0.119398 0.340983 
-0.189279 0.071431 0.190770 
0.200704 -0.075722 -0.011489 
0.003444 0.245531 -0.280720 
0.148175 -0.207374 -0.029106 
0.205620 -0.008416 0.086962 
0.002184 -0.247388 0.278256 
0.097946 0.261534 0.100371 
0.115412 -0.238043 0.129719 
-0.124524 -0.119183 0.348161 
0.185636 -0.070590 -0.188916 
-0.147793 -0.207640 -0.028046 
0.175862 -0.155134 0.064959 
0.115987 -0.220138 -0.190020 
0.001352 -0.301920 -0.042069 
0.127826 0.184946 -0.240891 
0.175996 -0.142790 -0.106609 
0.122339 0.217916 0.187264 
0.092101 -0.269297 0.031080 
0.137345 0.073979 0.363774 
-0.178853 0.017541 -0.270554 
-0.092955 -0.262836 -0.104789 
0.130805 -0.080010 -0.368799 
-0.200142 0.075320 0.009069 
-0.088528 0.272129 -0.034281 
-0.125653 0.079925 0.373933 
0.127335 0.113162 -0.344392 
0.003189 0.284023 -0.162561 
0.009030 0.266358 0.227883 
-0.203522 0.006904 -0.091090 
0.093212 -0.262236 -0.103935 
0.128838 -0.190780 0.237200 
0.176670 0.015405 -0.267555 
-0.129127 -0.161363 -0.284973 
-0.176043 -0.141956 -0.106097 
0.176298 0.150597 -0.070071 
0.096402 0.267907 -0.035502 
-0.115899 -0.220683 -0.190884 
0.129110 -0.160382 -0.282730 
-0.112486 0.239206 -0.134532 
-0.147228 0.210420 0.027303 
-0.124237 0.191011 -0.243064 
0.002480 -0.286817 0.159410 
0.001318 -0.301164 0.050765 
0.103505 -0.007011 0.082015 
0.001740 0.108777 0.094662 
-0.089987 -0.014192 0.247680 
0.090116 -0.127339 0.061494 
0.005216 0.057505 0.328267 
-0.000136 0.012738 -0.241936 
0.000529 0.055389 0.007411 
-0.102774 -0.005255 0.084350 
0.000928 0.118968 -0.063284 
0.000199 -0.219679 -0.096006 
0.101385 0.058566 0.006882 
0.001549 0.089713 -0.313364 
-0.100544 0.060784 0.008311 
0.093472 -0.056486 -0.174862 
-0.088351 0.128019 -0.064039 
0.097522 0.053817 0.171551 
0.092213 0.115031 0.095485 
0.080094 0.171160 0.023375 
0.000503 -0.119769 0.061502 
0.094131 -0.015995 0.242807 
0.001506 0.151610 -0.222166 
0.000991 -0.226645 0.028803 
0.002025 0.051252 0.168518 
-0.076997 -0.173978 -0.025965 
0.000201 0.071560 -0.153871 
0.002582 -0.014908 0.238473 
0.095612 -0.077304 0.153811 
0.101072 -0.061069 -0.009927 
-0.100504 -0.060247 -0.008839 
-0.000181 -0.179035 -0.175596 
0.088998 -0.117181 -0.098622 
0.101859 0.004362 -0.085137 
0.000004 -0.056119 -0.008969 
-0.000604 -0.052651 -0.170966 
0.092782 0.074479 -0.157296 
0.001333 -0.196095 0.122082 
0.001260 0.162899 0.023659 
-0.088689 0.118234 0.098341 
-0.093037 0.076374 -0.157737 
0.000495 -0.163688 -0.025413 
0.002126 0.194855 -0.124261 
-0.089131 0.013961 -0.249093 
0.002217 -0.153414 0.219298 
0.000029 -0.127491 -0.258405 
0.076953 -0.174089 -0.026759 
-0.076095 0.174560 0.025400 
0.001218 -0.072807 0.151434 
0.000546 -0.005981 0.080729 
-0.094300 0.056278 0.175239 
0.004802 0.125544 0.255729 
0.000179 -0.060254 -0.332596 
-0.093432 -0.076477 0.156684 
0.088727 0.012413 -0.247436 
0.004259 0.219292 0.094677 
-0.000334 0.004935 -0.082490 
-0.094077 -0.055407 -0.175686 
0.004392 0.178331 0.173505 
-0.102150 0.005906 -0.084757 
-0.000272 -0.109695 -0.096375 
0.003102 0.226149 -0.031805 
-0.089507 -0.117127 -0.098340 
0.003411 -0.093294 0.309359 
-0.088974 -0.127404 0.063132 
0.089812 0.125173 -0.064692 
CELLS 140 1260
8  15 66 57 75 0 20 186 49 
8  147 141 177 37 49 186 20 0 
8  15 75 86 55 0 49 147 37 
8  112 66 15 55 177 20 0 37 
8  29 140 161 197 1 25 138 27 
8  101 80 117 9 27 138 25 1 
8  74 140 29 61 117 25 1 9 
8  29 197 59 61 1 27 101 9 
8  26 159 175 157 2 39 145 50 
8  106 90 113 10 50 145 39 2 
8  135 106 10 71 157 50 2 26 
8  10 113 103 71 2 39 159 26 
8  12 87 132 116 3 24 181 38 
8  195 172 189 45 38 181 24 3 
8  12 116 65 83 3 38 195 45 
8  60 87 12 83 189 24 3 45 
8  14 106 135 110 4 50 157 43 
8  180 175 145 51 43 157 50 4 
8  90 106 14 122 145 50 4 51 
8  14 110 96 122 4 43 180 51 
8  11 128 89 99 5 32 153 46 
8  189 172 195 45 46 153 32 5 
8  11 99 60 83 5 46 189 45 
8  65 128 11 83 195 32 5 45 
8  8 114 124 118 6 36 188 33 
8  147 141 186 49 33 188 36 6 
8  86 147 49 75 118 33 6 8 
8  49 186 57 75 6 36 114 8 
8  13 61 74 111 7 29 140 30 
8  155 161 197 28 30 140 29 7 
8  59 61 13 92 197 29 7 28 
8  13 111 76 92 7 30 155 28 
8  191 78 112 177 16 125 66 20 
8  186 57 63 179 20 66 125 16 
8  179 63 64 165 16 125 129 18 
8  196 126 78 191 18 129 125 16 
8  191 177 141 169 16 20 186 179 
8  194 196 191 169 165 18 16 179 
8  109 120 60 99 17 192 189 46 
8  153 172 137 152 46 189 192 17 
8  109 99 89 56 17 46 153 152 
8  152 137 158 151 17 192 185 44 
8  68 88 120 109 44 185 192 17 
8  53 68 109 56 151 44 17 152 
8  165 64 90 145 18 129 113 39 
8  159 103 126 196 39 113 129 18 
8  175 159 196 194 145 39 18 165 
8  105 108 102 130 19 166 149 34 
8  179 169 194 165 34 149 166 19 
8  165 194 175 145 19 166 180 51 
8  122 96 108 105 51 180 166 19 
8  105 130 63 64 19 34 179 165 
8  90 122 105 64 145 51 19 165 
8  139 154 175 180 21 171 157 43 
8  110 135 134 100 43 157 171 21 
8  100 134 98 123 21 171 178 31 
8  162 182 154 139 31 178 171 21 
8  139 180 96 104 21 43 110 100 
8  73 162 139 104 123 31 21 100 
8  176 119 95 156 22 131 133 40 
8  174 54 84 150 40 133 131 22 
8  150 84 132 181 22 131 116 38 
8  195 65 119 176 38 116 131 22 
8  176 156 160 144 22 40 174 150 
8  172 195 176 144 181 38 22 150 
8  185 88 120 192 23 81 77 41 
8  173 82 93 184 41 77 81 23 
8  185 192 137 158 23 41 173 184 
8  184 93 80 138 23 81 117 25 
8  140 74 88 185 25 117 81 23 
8  161 140 185 158 138 25 23 184 
8  87 60 120 77 24 189 192 41 
8  173 137 172 181 41 192 189 24 
8  82 173 181 132 77 41 24 87 
8  157 135 134 171 26 71 58 42 
8  198 69 103 159 42 58 71 26 
8  157 171 154 175 26 42 198 159 
8  138 80 85 187 27 101 62 35 
8  178 98 59 197 35 62 101 27 
8  138 187 182 161 27 35 178 197 
8  155 161 182 162 28 197 178 31 
8  123 98 59 92 31 178 197 28 
8  155 162 73 76 28 31 123 92 
8  111 74 88 68 30 140 185 44 
8  151 158 161 155 44 185 140 30 
8  111 68 53 76 30 44 151 155 
8  195 172 144 176 32 153 199 48 
8  52 127 89 128 48 199 153 32 
8  195 176 119 65 32 48 52 128 
8  188 141 160 170 33 147 156 47 
8  107 95 86 118 47 156 147 33 
8  72 107 118 124 170 47 33 188 
8  179 63 57 186 34 130 114 36 
8  188 124 102 149 36 114 130 34 
8  179 186 141 169 34 36 188 149 
8  62 98 134 58 35 178 171 42 
8  198 154 182 187 42 171 178 35 
8  62 58 69 85 35 42 198 187 
8  147 141 160 156 37 177 174 40 
8  133 54 112 55 40 174 177 37 
8  95 133 55 86 156 40 37 147 
8  156 95 119 176 47 107 52 48 
8  199 127 72 170 48 52 107 47 
8  156 176 144 160 47 48 199 170 
8  97 91 146 136 53 56 152 151 
8  73 97 136 162 76 53 151 155 
8  174 177 191 193 54 112 78 121 
8  148 115 84 150 193 121 54 174 
8  91 127 199 146 56 89 153 152 
8  143 184 173 148 67 93 82 115 
8  193 121 70 164 148 115 67 143 
8  143 164 198 187 67 70 69 85 
8  138 80 93 184 187 85 67 143 
8  159 196 126 103 198 164 70 69 
8  196 191 78 126 164 193 121 70 
8  124 188 149 102 72 170 167 79 
8  91 146 199 127 79 167 170 72 
8  163 139 104 94 136 162 73 97 
8  102 149 166 108 79 167 163 94 
8  97 136 146 91 94 163 167 79 
8  84 115 148 150 132 82 173 181 
8  108 166 180 96 94 163 139 104 
8  163 167 190 168 136 146 142 183 
8  158 137 152 151 183 142 146 136 
8  154 182 162 139 168 183 136 163 
8  161 158 151 155 182 183 136 162 
8  148 142 144 150 173 137 172 181 
8  143 184 158 183 148 173 137 142 
8  199 144 142 146 153 172 137 152 
8  182 183 143 187 161 158 184 138 
8  175 180 166 194 154 139 163 168 
8  174 160 190 193 177 141 169 191 
8  169 190 167 149 141 160 170 188 
8  160 174 193 190 144 150 148 142 
8  164 143 183 168 193 148 142 190 
8  167 170 160 190 146 199 144 142 
8  154 168 164 198 182 183 143 187 
8  168 190 167 163 194 169 149 166 
8  159 175 194 196 198 154 168 164 
8  196 194 169 191 164 168 190 193 
CELL_TYPES 140
10
10
10
10
10
10
10
10
10
10
10
10
10
10
10
10
10
10
10
10
10
10
10
10
10
10
10
10
10
10
10
10
10
10
10
10
10
10
10
10
10
10
10
10
10
10
10
10
10
10
10
10
10
10
10
10
10
10
10
10
10
10
10
10
10
10
10
10
10
10
10
10
10
10
10
10
10
10
10
10
10
10
10
10
10
10
10
10
10
10
10
10
10
10
10
10
10
10
10
10
10
10
10
10
10
10
10
10
10
10
10
10
10
10
10
10
10
10
10
10
10
10
10
10
10
10
10
10
10
10
10
10
10
10
10
10
10
10
10
10
CELL_DATA 140
SCALARS u float 1
LOOKUP_TABLE default
-3.789097
-2.749342
-2.874297
-3.412380
2.144580
1.768377
3.083543
2.179108
-2.268773
-2.959343
-2.418596
-2.834421
1.595704
1.805240
1.928952
2.479751
-1.901206
-1.786994
-2.439641
-1.563821
2.831232
2.274185
2.978019
2.432126
-1.750324
-2.146856
-2.161228
-3.056763
3.760908
2.728464
2.862050
3.378348
-3.616034
-3.986754
-3.787015
-3.496428
-2.811542
-2.694370
3.404009
2.457637
3.179654
2.682493
3.789105
3.475822
-3.388058
-3.190189
-2.459814
-1.619519
-2.035315
-1.870971
-1.534564
-2.998667
-2.709516
-0.766710
-0.933752
0.222711
0.350711
-0.392456
0.858078
-0.223227
-0.865080
0.400253
0.942646
-0.356299
0.769303
3.045073
1.655852
2.046045
1.717673
3.191739
2.144214
2.755677
1.885004
1.569218
-1.604251
-2.034589
-1.357350
0.264251
0.721233
0.868286
1.527433
1.515463
2.150919
3.967000
2.790275
3.586590
1.349801
2.019099
1.602290
-0.885530
-0.720662
-0.285580
-3.157322
-1.692551
-2.143288
-0.545298
-0.303453
-0.987218
-1.542711
-2.161827
-1.513293
0.537677
0.963031
0.290376
2.397640
2.410046
-2.430733
-1.161188
2.232470
0.122197
-1.212879
-1.135343
0.156108
-2.256179
-2.422458
-0.181090
1.105444
1.145156
-0.130765
1.189758
0.159327
-0.158881
0.392153
1.536559
0.437267
1.597540
0.708870
0.775571
1.407423
0.846893
-0.714148
-1.618387
-0.866677
-0.451278
-0.410069
0.308118
-0.327449
-0.787056
-1.422547
-1.554271
